LAMMPS data file for test script
100 atoms

1 atom types
-15.532224567 15.532224567 xlo xhi
-15.532224567 15.532224567 ylo yhi
-0.5 0.5 zlo zhi

Atoms

1 1 1 6 -15.5322 -15.5322 0 0 0 0
2 1 1 4 -12.4258 -15.5322 0 0 0 0
3 1 1 3 -9.31933 -15.5322 0 0 0 0
4 1 1 5 -6.21289 -15.5322 0 0 0 0
5 1 1 6 -3.10644 -15.5322 0 0 0 0
6 1 1 5 0 -15.5322 0 0 0 0
7 1 1 5 3.10644 -15.5322 0 0 0 0
8 1 1 2 6.21289 -15.5322 0 0 0 0
9 1 1 6 9.31933 -15.5322 0 0 0 0
10 1 1 2 12.4258 -15.5322 0 0 0 0
11 1 1 4 -15.5322 -12.4258 0 0 0 0
12 1 1 3 -12.4258 -12.4258 0 0 0 0
13 1 1 2 -9.31933 -12.4258 0 0 0 0
14 1 1 6 -6.21289 -12.4258 0 0 0 0
15 1 1 5 -3.10644 -12.4258 0 0 0 0
16 1 1 6 0 -12.4258 0 0 0 0
17 1 1 4 3.10644 -12.4258 0 0 0 0
18 1 1 3 6.21289 -12.4258 0 0 0 0
19 1 1 5 9.31933 -12.4258 0 0 0 0
20 1 1 4 12.4258 -12.4258 0 0 0 0
21 1 1 4 -15.5322 -9.31933 0 0 0 0
22 1 1 2 -12.4258 -9.31933 0 0 0 0
23 1 1 3 -9.31933 -9.31933 0 0 0 0
24 1 1 6 -6.21289 -9.31933 0 0 0 0
25 1 1 5 -3.10644 -9.31933 0 0 0 0
26 1 1 3 0 -9.31933 0 0 0 0
27 1 1 6 3.10644 -9.31933 0 0 0 0
28 1 1 2 6.21289 -9.31933 0 0 0 0
29 1 1 4 9.31933 -9.31933 0 0 0 0
30 1 1 4 12.4258 -9.31933 0 0 0 0
31 1 1 3 -15.5322 -6.21289 0 0 0 0
32 1 1 6 -12.4258 -6.21289 0 0 0 0
33 1 1 2 -9.31933 -6.21289 0 0 0 0
34 1 1 4 -6.21289 -6.21289 0 0 0 0
35 1 1 6 -3.10644 -6.21289 0 0 0 0
36 1 1 2 0 -6.21289 0 0 0 0
37 1 1 3 3.10644 -6.21289 0 0 0 0
38 1 1 2 6.21289 -6.21289 0 0 0 0
39 1 1 2 9.31933 -6.21289 0 0 0 0
40 1 1 6 12.4258 -6.21289 0 0 0 0
41 1 1 5 -15.5322 -3.10644 0 0 0 0
42 1 1 4 -12.4258 -3.10644 0 0 0 0
43 1 1 3 -9.31933 -3.10644 0 0 0 0
44 1 1 5 -6.21289 -3.10644 0 0 0 0
45 1 1 2 -3.10644 -3.10644 0 0 0 0
46 1 1 4 0 -3.10644 0 0 0 0
47 1 1 4 3.10644 -3.10644 0 0 0 0
48 1 1 2 6.21289 -3.10644 0 0 0 0
49 1 1 3 9.31933 -3.10644 0 0 0 0
50 1 1 3 12.4258 -3.10644 0 0 0 0
51 1 1 6 -15.5322 0 0 0 0 0
52 1 1 2 -12.4258 0 0 0 0 0
53 1 1 3 -9.31933 0 0 0 0 0
54 1 1 5 -6.21289 0 0 0 0 0
55 1 1 3 -3.10644 0 0 0 0 0
56 1 1 4 0 0 0 0 0 0
57 1 1 2 3.10644 0 0 0 0 0
58 1 1 2 6.21289 0 0 0 0 0
59 1 1 6 9.31933 0 0 0 0 0
60 1 1 5 12.4258 0 0 0 0 0
61 1 1 5 -15.5322 3.10644 0 0 0 0
62 1 1 2 -12.4258 3.10644 0 0 0 0
63 1 1 3 -9.31933 3.10644 0 0 0 0
64 1 1 3 -6.21289 3.10644 0 0 0 0
65 1 1 6 -3.10644 3.10644 0 0 0 0
66 1 1 2 0 3.10644 0 0 0 0
67 1 1 6 3.10644 3.10644 0 0 0 0
68 1 1 6 6.21289 3.10644 0 0 0 0
69 1 1 4 9.31933 3.10644 0 0 0 0
70 1 1 6 12.4258 3.10644 0 0 0 0
71 1 1 4 -15.5322 6.21289 0 0 0 0
72 1 1 2 -12.4258 6.21289 0 0 0 0
73 1 1 3 -9.31933 6.21289 0 0 0 0
74 1 1 3 -6.21289 6.21289 0 0 0 0
75 1 1 3 -3.10644 6.21289 0 0 0 0
76 1 1 5 0 6.21289 0 0 0 0
77 1 1 3 3.10644 6.21289 0 0 0 0
78 1 1 6 6.21289 6.21289 0 0 0 0
79 1 1 3 9.31933 6.21289 0 0 0 0
80 1 1 2 12.4258 6.21289 0 0 0 0
81 1 1 3 -15.5322 9.31933 0 0 0 0
82 1 1 4 -12.4258 9.31933 0 0 0 0
83 1 1 4 -9.31933 9.31933 0 0 0 0
84 1 1 2 -6.21289 9.31933 0 0 0 0
85 1 1 2 -3.10644 9.31933 0 0 0 0
86 1 1 5 0 9.31933 0 0 0 0
87 1 1 2 3.10644 9.31933 0 0 0 0
88 1 1 6 6.21289 9.31933 0 0 0 0
89 1 1 2 9.31933 9.31933 0 0 0 0
90 1 1 4 12.4258 9.31933 0 0 0 0
91 1 1 3 -15.5322 12.4258 0 0 0 0
92 1 1 4 -12.4258 12.4258 0 0 0 0
93 1 1 3 -9.31933 12.4258 0 0 0 0
94 1 1 2 -6.21289 12.4258 0 0 0 0
95 1 1 5 -3.10644 12.4258 0 0 0 0
96 1 1 3 0 12.4258 0 0 0 0
97 1 1 6 3.10644 12.4258 0 0 0 0
98 1 1 5 6.21289 12.4258 0 0 0 0
99 1 1 5 9.31933 12.4258 0 0 0 0
100 1 1 5 12.4258 12.4258 0 0 0 0

